<?xml version="1.0" encoding="UTF-8"?>

<!-- generated on 2026-03-25T18:16:12.448565+05:30 by Eclipse SUMO GUI 1.26.0
<sumoConfiguration xmlns:xsi="http://www.w3.org/2001/XMLSchema-instance" xsi:noNamespaceSchemaLocation="http://sumo.dlr.de/xsd/sumoConfiguration.xsd">

    <input>
        <net-file value="C:\Users\welcome\Downloads\fixed_aqi_simulation_v12_pm25_graphfix\city\city.net.xml"/>
        <route-files value="C:\Users\welcome\Downloads\fixed_aqi_simulation_v12_pm25_graphfix\city\city.rou.xml"/>
        <additional-files value="C:\Users\welcome\Downloads\fixed_aqi_simulation_v12_pm25_graphfix\city\city.add.xml,C:\Users\welcome\Downloads\fixed_aqi_simulation_v12_pm25_graphfix\city\city.poly.xml"/>
    </input>

    <time>
        <begin value="0"/>
        <end value="-1"/>
        <step-length value="1"/>
    </time>

    <processing>
        <ignore-route-errors value="true"/>
        <collision.action value="warn"/>
        <time-to-teleport value="300"/>
        <time-to-teleport.highways value="0"/>
        <max-depart-delay value="90"/>
    </processing>

    <report>
        <no-warnings value="true"/>
        <no-step-log value="true"/>
    </report>

    <traci_server>
        <remote-port value="8814"/>
    </traci_server>

    <gui_only>
        <gui-settings-file value="C:\Users\welcome\Downloads\fixed_aqi_simulation_v12_pm25_graphfix\city\city.view.xml"/>
        <quit-on-end value="true"/>
        <start value="true"/>
    </gui_only>

</sumoConfiguration>
-->

<meandata xmlns:xsi="http://www.w3.org/2001/XMLSchema-instance" xsi:noNamespaceSchemaLocation="http://sumo.dlr.de/xsd/meandata_file.xsd">
    <interval begin="0.00" end="60.00" id="edge_em">
        <edge id="-1121186659" sampledSeconds="27.66" CO_abs="287.82" CO2_abs="78701.89" HC_abs="1.91" PMx_abs="5.68" NOx_abs="23.97" fuel_abs="25513.84" electricity_abs="0.00"
            CO_normed="103.96" CO2_normed="28427.63" HC_normed="0.69" PMx_normed="2.05" NOx_normed="8.66" fuel_normed="9215.76" electricity_normed="0.00"
            traveltime="19.03" CO_perVeh="198.00" CO2_perVeh="54142.32" HC_perVeh="1.32" PMx_perVeh="3.91" NOx_perVeh="16.49" fuel_perVeh="17552.04" electricity_perVeh="0.00"/>
        <edge id="-1121186669#0" sampledSeconds="7.51" CO_abs="33.10" CO2_abs="16401.63" HC_abs="0.22" PMx_abs="0.50" NOx_abs="4.16" fuel_abs="5317.04" electricity_abs="0.00"
            CO_normed="57.88" CO2_normed="28674.18" HC_normed="0.38" PMx_normed="0.87" NOx_normed="7.27" fuel_normed="9295.52" electricity_normed="0.00"
            traveltime="8.68" CO_perVeh="38.23" CO2_perVeh="18940.24" HC_perVeh="0.25" PMx_perVeh="0.57" NOx_perVeh="4.80" fuel_perVeh="6140.00" electricity_perVeh="0.00"/>
        <edge id="-1121186669#1" sampledSeconds="11.69" CO_abs="247.67" CO2_abs="53679.73" HC_abs="1.64" PMx_abs="3.32" NOx_abs="16.58" fuel_abs="17402.07" electricity_abs="0.00"
            CO_normed="154.56" CO2_normed="33497.49" HC_normed="1.02" PMx_normed="2.07" NOx_normed="10.35" fuel_normed="10859.32" electricity_normed="0.00"
            traveltime="10.74" CO_perVeh="227.61" CO2_perVeh="49331.49" HC_perVeh="1.51" PMx_perVeh="3.06" NOx_perVeh="15.24" fuel_perVeh="15992.44" electricity_perVeh="0.00"/>
        <edge id="-1121186670" sampledSeconds="4.28" CO_abs="13.77" CO2_abs="7080.73" HC_abs="0.09" PMx_abs="0.40" NOx_abs="2.12" fuel_abs="2295.46" electricity_abs="0.00"
            CO_normed="38.67" CO2_normed="19889.70" HC_normed="0.26" PMx_normed="1.13" NOx_normed="5.96" fuel_normed="6447.92" electricity_normed="0.00"
            traveltime="4.28" CO_perVeh="13.77" CO2_perVeh="7080.73" HC_perVeh="0.09" PMx_perVeh="0.40" NOx_perVeh="2.12" fuel_perVeh="2295.46" electricity_perVeh="0.00"/>
        <edge id="-116046165#1" sampledSeconds="25.67" CO_abs="249.95" CO2_abs="61269.89" HC_abs="1.68" PMx_abs="6.15" NOx_abs="19.74" fuel_abs="19862.80" electricity_abs="0.00"
            CO_normed="56.09" CO2_normed="13748.43" HC_normed="0.38" PMx_normed="1.38" NOx_normed="4.43" fuel_normed="4457.04" electricity_normed="0.00"
            traveltime="26.12" CO_perVeh="254.32" CO2_perVeh="62342.38" HC_perVeh="1.71" PMx_perVeh="6.26" NOx_perVeh="20.09" fuel_perVeh="20210.49" electricity_perVeh="0.00"/>
        <edge id="-139069980#1" sampledSeconds="6.34" CO_abs="54.29" CO2_abs="21535.23" HC_abs="0.36" PMx_abs="0.97" NOx_abs="6.03" fuel_abs="6981.31" electricity_abs="0.00"
            CO_normed="76.21" CO2_normed="30231.96" HC_normed="0.50" PMx_normed="1.35" NOx_normed="8.46" fuel_normed="9800.62" electricity_normed="0.00"
            traveltime="7.11" CO_perVeh="60.83" CO2_perVeh="24132.56" HC_perVeh="0.40" PMx_perVeh="1.08" NOx_perVeh="6.76" fuel_perVeh="7823.31" electricity_perVeh="0.00"/>
        <edge id="-139069980#3" sampledSeconds="7.46" CO_abs="139.63" CO2_abs="27982.41" HC_abs="0.93" PMx_abs="2.45" NOx_abs="9.33" fuel_abs="9071.51" electricity_abs="0.00"
            CO_normed="85.48" CO2_normed="17130.34" HC_normed="0.57" PMx_normed="1.50" NOx_normed="5.71" fuel_normed="5553.42" electricity_normed="0.00"
            traveltime="9.14" CO_perVeh="171.13" CO2_perVeh="34294.84" HC_perVeh="1.14" PMx_perVeh="3.00" NOx_perVeh="11.43" fuel_perVeh="11117.91" electricity_perVeh="0.00"/>
        <edge id="-139069980#6" sampledSeconds="6.00" CO_abs="101.79" CO2_abs="27961.12" HC_abs="0.67" PMx_abs="1.45" NOx_abs="8.09" fuel_abs="9064.47" electricity_abs="0.00"
            CO_normed="62.10" CO2_normed="17058.13" HC_normed="0.41" PMx_normed="0.89" NOx_normed="4.93" fuel_normed="5529.93" electricity_normed="0.00"
            traveltime="12.68" CO_perVeh="215.10" CO2_perVeh="59086.81" HC_perVeh="1.42" PMx_perVeh="3.07" NOx_perVeh="17.09" fuel_perVeh="19154.84" electricity_perVeh="0.00"/>
        <edge id="-24583593#10" sampledSeconds="11.32" CO_abs="114.95" CO2_abs="29353.10" HC_abs="0.76" PMx_abs="1.48" NOx_abs="8.53" fuel_abs="9515.73" electricity_abs="0.00"
            CO_normed="79.01" CO2_normed="20173.96" HC_normed="0.52" PMx_normed="1.02" NOx_normed="5.86" fuel_normed="6540.02" electricity_normed="0.00"
            traveltime="11.95" CO_perVeh="121.35" CO2_perVeh="30985.80" HC_perVeh="0.80" PMx_perVeh="1.56" NOx_perVeh="9.01" fuel_perVeh="10045.02" electricity_perVeh="0.00"/>
        <edge id="-24583594#1" sampledSeconds="41.00" CO_abs="637.00" CO2_abs="134856.37" HC_abs="4.29" PMx_abs="14.88" NOx_abs="44.69" fuel_abs="43718.55" electricity_abs="0.00"
            CO_normed="81.43" CO2_normed="17239.55" HC_normed="0.55" PMx_normed="1.90" NOx_normed="5.71" fuel_normed="5588.82" electricity_normed="0.00"
            traveltime="38.73" CO_perVeh="601.72" CO2_perVeh="127388.64" HC_perVeh="4.05" PMx_perVeh="14.06" NOx_perVeh="42.22" fuel_perVeh="41297.62" electricity_perVeh="0.00"/>
        <edge id="-370672194#14" sampledSeconds="0.70" CO_abs="7.17" CO2_abs="2331.65" HC_abs="0.05" PMx_abs="0.15" NOx_abs="0.73" fuel_abs="755.89" electricity_abs="0.00"
            CO_normed="0.95" CO2_normed="307.68" HC_normed="0.01" PMx_normed="0.02" NOx_normed="0.10" fuel_normed="99.75" electricity_normed="0.00"
            traveltime="60.99" CO_perVeh="628.71" CO2_perVeh="204354.66" HC_perVeh="4.16" PMx_perVeh="13.42" NOx_perVeh="64.42" fuel_perVeh="66248.83" electricity_perVeh="0.00"/>
        <edge id="-370672197#1" sampledSeconds="19.59" CO_abs="56.73" CO2_abs="24868.97" HC_abs="0.40" PMx_abs="4.12" NOx_abs="8.82" fuel_abs="8062.30" electricity_abs="0.00"
            CO_normed="16.90" CO2_normed="7409.56" HC_normed="0.12" PMx_normed="1.23" NOx_normed="2.63" fuel_normed="2402.12" electricity_normed="0.00"
            traveltime="19.59" CO_perVeh="56.73" CO2_perVeh="24868.97" HC_perVeh="0.40" PMx_perVeh="4.12" NOx_perVeh="8.82" fuel_perVeh="8062.30" electricity_perVeh="0.00"/>
        <edge id="-370672197#2" sampledSeconds="5.95" CO_abs="31.66" CO2_abs="11302.12" HC_abs="0.22" PMx_abs="2.06" NOx_abs="4.17" fuel_abs="3664.06" electricity_abs="0.00"
            CO_normed="26.07" CO2_normed="9304.71" HC_normed="0.18" PMx_normed="1.69" NOx_normed="3.44" fuel_normed="3016.52" electricity_normed="0.00"
            traveltime="5.95" CO_perVeh="31.66" CO2_perVeh="11302.12" HC_perVeh="0.22" PMx_perVeh="2.06" NOx_perVeh="4.17" fuel_perVeh="3664.06" electricity_perVeh="0.00"/>
        <edge id="-370672197#4" sampledSeconds="17.51" CO_abs="218.93" CO2_abs="55589.49" HC_abs="1.47" PMx_abs="5.58" NOx_abs="18.05" fuel_abs="18021.32" electricity_abs="0.00"
            CO_normed="67.87" CO2_normed="17233.49" HC_normed="0.46" PMx_normed="1.73" NOx_normed="5.60" fuel_normed="5586.85" electricity_normed="0.00"
            traveltime="17.93" CO_perVeh="224.26" CO2_perVeh="56942.89" HC_perVeh="1.50" PMx_perVeh="5.72" NOx_perVeh="18.49" fuel_perVeh="18460.07" electricity_perVeh="0.00"/>
        <edge id="-370672197#5" sampledSeconds="12.76" CO_abs="159.19" CO2_abs="37814.65" HC_abs="1.07" PMx_abs="4.09" NOx_abs="12.91" fuel_abs="12259.05" electricity_abs="0.00"
            CO_normed="65.02" CO2_normed="15445.06" HC_normed="0.44" PMx_normed="1.67" NOx_normed="5.27" fuel_normed="5007.10" electricity_normed="0.00"
            traveltime="13.52" CO_perVeh="168.60" CO2_perVeh="40050.88" HC_perVeh="1.13" PMx_perVeh="4.33" NOx_perVeh="13.67" fuel_perVeh="12984.01" electricity_perVeh="0.00"/>
        <edge id="-562205292#1" sampledSeconds="3.23" CO_abs="117.84" CO2_abs="19071.58" HC_abs="0.78" PMx_abs="1.13" NOx_abs="6.19" fuel_abs="6182.70" electricity_abs="0.00"
            CO_normed="44.19" CO2_normed="7151.40" HC_normed="0.29" PMx_normed="0.42" NOx_normed="2.32" fuel_normed="2318.37" electricity_normed="0.00"
            traveltime="15.60" CO_perVeh="568.50" CO2_perVeh="92006.51" HC_perVeh="3.75" PMx_perVeh="5.47" NOx_perVeh="29.86" fuel_perVeh="29827.05" electricity_perVeh="0.00"/>
        <edge id="-582759331#0" sampledSeconds="7.06" CO_abs="24.31" CO2_abs="15893.22" HC_abs="0.16" PMx_abs="0.51" NOx_abs="4.11" fuel_abs="5152.23" electricity_abs="0.00"
            CO_normed="91.46" CO2_normed="59786.40" HC_normed="0.60" PMx_normed="1.91" NOx_normed="15.47" fuel_normed="19381.42" electricity_normed="0.00"
            traveltime="4.12" CO_perVeh="14.20" CO2_perVeh="9285.60" HC_perVeh="0.09" PMx_perVeh="0.30" NOx_perVeh="2.40" fuel_perVeh="3010.18" electricity_perVeh="0.00"/>
        <edge id="-706854224" sampledSeconds="14.82" CO_abs="163.66" CO2_abs="40034.82" HC_abs="1.08" PMx_abs="2.38" NOx_abs="11.95" fuel_abs="12978.58" electricity_abs="0.00"
            CO_normed="76.47" CO2_normed="18704.95" HC_normed="0.51" PMx_normed="1.11" NOx_normed="5.58" fuel_normed="6063.81" electricity_normed="0.00"
            traveltime="15.37" CO_perVeh="169.74" CO2_perVeh="41522.14" HC_perVeh="1.12" PMx_perVeh="2.47" NOx_perVeh="12.40" fuel_perVeh="13460.74" electricity_perVeh="0.00"/>
        <edge id="-712992080#0" sampledSeconds="17.21" CO_abs="110.45" CO2_abs="50858.93" HC_abs="0.73" PMx_abs="1.76" NOx_abs="13.24" fuel_abs="16487.36" electricity_abs="0.00"
            CO_normed="164.73" CO2_normed="75852.25" HC_normed="1.08" PMx_normed="2.63" NOx_normed="19.74" fuel_normed="24589.65" electricity_normed="0.00"
            traveltime="8.71" CO_perVeh="55.90" CO2_perVeh="25737.45" HC_perVeh="0.37" PMx_perVeh="0.89" NOx_perVeh="6.70" fuel_perVeh="8343.52" electricity_perVeh="0.00"/>
        <edge id="-712992080#4" sampledSeconds="5.66" CO_abs="181.63" CO2_abs="29282.28" HC_abs="1.20" PMx_abs="2.00" NOx_abs="9.69" fuel_abs="9492.87" electricity_abs="0.00"
            CO_normed="40.65" CO2_normed="6553.53" HC_normed="0.27" PMx_normed="0.45" NOx_normed="2.17" fuel_normed="2124.56" electricity_normed="0.00"
            traveltime="25.09" CO_perVeh="805.81" CO2_perVeh="129909.06" HC_perVeh="5.33" PMx_perVeh="8.89" NOx_perVeh="42.99" fuel_perVeh="42114.53" electricity_perVeh="0.00"/>
        <edge id="-712992080#8" sampledSeconds="13.00" CO_abs="265.53" CO2_abs="52688.28" HC_abs="1.77" PMx_abs="4.50" NOx_abs="16.90" fuel_abs="17080.71" electricity_abs="0.00"
            CO_normed="64.84" CO2_normed="12865.97" HC_normed="0.43" PMx_normed="1.10" NOx_normed="4.13" fuel_normed="4170.94" electricity_normed="0.00"
            traveltime="21.97" CO_perVeh="448.78" CO2_perVeh="89050.24" HC_perVeh="2.99" PMx_perVeh="7.61" NOx_perVeh="28.57" fuel_perVeh="28868.68" electricity_perVeh="0.00"/>
        <edge id="-717531843" sampledSeconds="2.00" CO_abs="20.01" CO2_abs="10458.00" HC_abs="0.13" PMx_abs="0.26" NOx_abs="2.52" fuel_abs="3390.23" electricity_abs="0.00"
            CO_normed="39.64" CO2_normed="20722.58" HC_normed="0.26" PMx_normed="0.52" NOx_normed="5.00" fuel_normed="6717.76" electricity_normed="0.00"
            traveltime="7.26" CO_perVeh="72.66" CO2_perVeh="37982.48" HC_perVeh="0.48" PMx_perVeh="0.94" NOx_perVeh="9.16" fuel_perVeh="12312.99" electricity_perVeh="0.00"/>
        <edge id="-717531844#0" sampledSeconds="34.00" CO_abs="327.78" CO2_abs="88568.29" HC_abs="2.22" PMx_abs="11.52" NOx_abs="30.19" fuel_abs="28712.79" electricity_abs="0.00"
            CO_normed="48.37" CO2_normed="13070.56" HC_normed="0.33" PMx_normed="1.70" NOx_normed="4.46" fuel_normed="4237.32" electricity_normed="0.00"
            traveltime="34.75" CO_perVeh="334.98" CO2_perVeh="90513.23" HC_perVeh="2.27" PMx_perVeh="11.77" NOx_perVeh="30.86" fuel_perVeh="29343.32" electricity_perVeh="0.00"/>
        <edge id="-717531845" sampledSeconds="13.20" CO_abs="143.19" CO2_abs="31644.69" HC_abs="0.95" PMx_abs="2.08" NOx_abs="9.93" fuel_abs="10258.71" electricity_abs="0.00"
            CO_normed="88.09" CO2_normed="19467.66" HC_normed="0.58" PMx_normed="1.28" NOx_normed="6.11" fuel_normed="6311.11" electricity_normed="0.00"
            traveltime="11.78" CO_perVeh="127.72" CO2_perVeh="28225.66" HC_perVeh="0.85" PMx_perVeh="1.86" NOx_perVeh="8.86" fuel_perVeh="9150.32" electricity_perVeh="0.00"/>
        <edge id="-717531847#2" sampledSeconds="10.52" CO_abs="106.87" CO2_abs="39781.10" HC_abs="0.70" PMx_abs="1.47" NOx_abs="10.77" fuel_abs="12896.22" electricity_abs="0.00"
            CO_normed="193.90" CO2_normed="72176.18" HC_normed="1.28" PMx_normed="2.67" NOx_normed="19.53" fuel_normed="23398.04" electricity_normed="0.00"
            traveltime="5.97" CO_perVeh="60.68" CO2_perVeh="22588.62" HC_perVeh="0.40" PMx_perVeh="0.84" NOx_perVeh="6.11" fuel_perVeh="7322.77" electricity_perVeh="0.00"/>
        <edge id="-717531847#3" sampledSeconds="4.74" CO_abs="47.62" CO2_abs="10778.11" HC_abs="0.32" PMx_abs="0.77" NOx_abs="3.48" fuel_abs="3494.11" electricity_abs="0.00"
            CO_normed="58.98" CO2_normed="13350.25" HC_normed="0.39" PMx_normed="0.96" NOx_normed="4.31" fuel_normed="4327.96" electricity_normed="0.00"
            traveltime="5.80" CO_perVeh="58.22" CO2_perVeh="13177.63" HC_perVeh="0.39" PMx_perVeh="0.95" NOx_perVeh="4.25" fuel_perVeh="4272.00" electricity_perVeh="0.00"/>
        <edge id="-745652418#0" sampledSeconds="5.73" CO_abs="154.46" CO2_abs="26738.23" HC_abs="1.02" PMx_abs="1.95" NOx_abs="8.84" fuel_abs="8668.14" electricity_abs="0.00"
            CO_normed="53.75" CO2_normed="9305.11" HC_normed="0.36" PMx_normed="0.68" NOx_normed="3.08" fuel_normed="3016.58" electricity_normed="0.00"
            traveltime="16.37" CO_perVeh="441.52" CO2_perVeh="76430.23" HC_perVeh="2.92" PMx_perVeh="5.56" NOx_perVeh="25.28" fuel_perVeh="24777.54" electricity_perVeh="0.00"/>
        <edge id="-895122213#1" sampledSeconds="3.00" CO_abs="50.35" CO2_abs="17016.32" HC_abs="0.33" PMx_abs="0.53" NOx_abs="4.44" fuel_abs="5516.32" electricity_abs="0.00"
            CO_normed="2.56" CO2_normed="864.63" HC_normed="0.02" PMx_normed="0.03" NOx_normed="0.23" fuel_normed="280.29" electricity_normed="0.00"
            traveltime="216.74" CO_perVeh="3637.52" CO2_perVeh="1229398.97" HC_perVeh="23.93" PMx_perVeh="38.65" NOx_perVeh="320.92" fuel_perVeh="398544.29" electricity_perVeh="0.00"/>
        <edge id="-993538721#2" sampledSeconds="15.70" CO_abs="137.31" CO2_abs="38726.50" HC_abs="0.91" PMx_abs="2.52" NOx_abs="11.56" fuel_abs="12554.46" electricity_abs="0.00"
            CO_normed="63.14" CO2_normed="17806.65" HC_normed="0.42" PMx_normed="1.16" NOx_normed="5.32" fuel_normed="5772.61" electricity_normed="0.00"
            traveltime="16.27" CO_perVeh="142.33" CO2_perVeh="40141.56" HC_perVeh="0.94" PMx_perVeh="2.61" NOx_perVeh="11.99" fuel_perVeh="13013.20" electricity_perVeh="0.00"/>
        <edge id="-998790358#10" sampledSeconds="0.22" CO_abs="1.86" CO2_abs="461.07" HC_abs="0.01" PMx_abs="0.09" NOx_abs="0.17" fuel_abs="149.48" electricity_abs="0.00"
            CO_normed="36.04" CO2_normed="8952.84" HC_normed="0.25" PMx_normed="1.72" NOx_normed="3.30" fuel_normed="2902.44" electricity_normed="0.00"
            traveltime="0.22" CO_perVeh="1.86" CO2_perVeh="461.07" HC_perVeh="0.01" PMx_perVeh="0.09" NOx_perVeh="0.17" fuel_perVeh="149.48" electricity_perVeh="0.00"/>
        <edge id="-998790358#17" sampledSeconds="8.90" CO_abs="74.77" CO2_abs="17226.28" HC_abs="0.52" PMx_abs="3.14" NOx_abs="6.33" fuel_abs="5584.61" electricity_abs="0.00"
            CO_normed="36.65" CO2_normed="8442.88" HC_normed="0.25" PMx_normed="1.54" NOx_normed="3.10" fuel_normed="2737.11" electricity_normed="0.00"
            traveltime="8.90" CO_perVeh="74.77" CO2_perVeh="17226.28" HC_perVeh="0.52" PMx_perVeh="3.14" NOx_perVeh="6.33" fuel_perVeh="5584.61" electricity_perVeh="0.00"/>
        <edge id="-998790358#19" sampledSeconds="3.55" CO_abs="29.44" CO2_abs="7346.57" HC_abs="0.21" PMx_abs="1.42" NOx_abs="2.71" fuel_abs="2381.70" electricity_abs="0.00"
            CO_normed="35.78" CO2_normed="8928.39" HC_normed="0.25" PMx_normed="1.72" NOx_normed="3.29" fuel_normed="2894.51" electricity_normed="0.00"
            traveltime="3.55" CO_perVeh="29.44" CO2_perVeh="7346.57" HC_perVeh="0.21" PMx_perVeh="1.42" NOx_perVeh="2.71" fuel_perVeh="2381.70" electricity_perVeh="0.00"/>
        <edge id="-998790358#7" sampledSeconds="13.60" CO_abs="100.52" CO2_abs="21078.44" HC_abs="0.68" PMx_abs="2.69" NOx_abs="7.44" fuel_abs="6833.39" electricity_abs="0.00"
            CO_normed="40.69" CO2_normed="8532.05" HC_normed="0.27" PMx_normed="1.09" NOx_normed="3.01" fuel_normed="2765.99" electricity_normed="0.00"
            traveltime="13.37" CO_perVeh="98.81" CO2_perVeh="20719.20" HC_perVeh="0.67" PMx_perVeh="2.64" NOx_perVeh="7.32" fuel_perVeh="6716.93" electricity_perVeh="0.00"/>
        <edge id="-998790358#9" sampledSeconds="5.23" CO_abs="79.04" CO2_abs="23104.10" HC_abs="0.53" PMx_abs="1.37" NOx_abs="6.58" fuel_abs="7489.91" electricity_abs="0.00"
            CO_normed="192.55" CO2_normed="56282.83" HC_normed="1.28" PMx_normed="3.34" NOx_normed="16.02" fuel_normed="18245.82" electricity_normed="0.00"
            traveltime="2.89" CO_perVeh="43.59" CO2_perVeh="12741.92" HC_perVeh="0.29" PMx_perVeh="0.76" NOx_perVeh="3.63" fuel_perVeh="4130.69" electricity_perVeh="0.00"/>
        <edge id="1074764284#0" sampledSeconds="11.34" CO_abs="182.58" CO2_abs="37189.26" HC_abs="1.22" PMx_abs="3.96" NOx_abs="12.70" fuel_abs="12056.29" electricity_abs="0.00"
            CO_normed="24.27" CO2_normed="4944.28" HC_normed="0.16" PMx_normed="0.53" NOx_normed="1.69" fuel_normed="1602.87" electricity_normed="0.00"
            traveltime="38.83" CO_perVeh="624.97" CO2_perVeh="127296.60" HC_perVeh="4.18" PMx_perVeh="13.55" NOx_perVeh="43.46" fuel_perVeh="41267.95" electricity_perVeh="0.00"/>
        <edge id="1075734524#0" sampledSeconds="5.91" CO_abs="33.44" CO2_abs="17101.29" HC_abs="0.22" PMx_abs="0.56" NOx_abs="4.43" fuel_abs="5543.86" electricity_abs="0.00"
            CO_normed="63.21" CO2_normed="32327.57" HC_normed="0.42" PMx_normed="1.05" NOx_normed="8.38" fuel_normed="10479.89" electricity_normed="0.00"
            traveltime="6.91" CO_perVeh="39.10" CO2_perVeh="19999.81" HC_perVeh="0.26" PMx_perVeh="0.65" NOx_perVeh="5.18" fuel_perVeh="6483.50" electricity_perVeh="0.00"/>
        <edge id="1121186660#0" sampledSeconds="7.39" CO_abs="67.00" CO2_abs="23357.49" HC_abs="0.44" PMx_abs="1.05" NOx_abs="6.56" fuel_abs="7572.05" electricity_abs="0.00"
            CO_normed="77.66" CO2_normed="27075.91" HC_normed="0.51" PMx_normed="1.21" NOx_normed="7.61" fuel_normed="8777.49" electricity_normed="0.00"
            traveltime="7.90" CO_perVeh="71.56" CO2_perVeh="24948.07" HC_perVeh="0.47" PMx_perVeh="1.12" NOx_perVeh="7.01" fuel_perVeh="8087.69" electricity_perVeh="0.00"/>
        <edge id="1121186660#2" sampledSeconds="7.45" CO_abs="60.46" CO2_abs="15818.57" HC_abs="0.40" PMx_abs="0.81" NOx_abs="4.73" fuel_abs="5128.11" electricity_abs="0.00"
            CO_normed="72.89" CO2_normed="19070.01" HC_normed="0.48" PMx_normed="0.98" NOx_normed="5.71" fuel_normed="6182.17" electricity_normed="0.00"
            traveltime="7.45" CO_perVeh="60.46" CO2_perVeh="15818.57" HC_perVeh="0.40" PMx_perVeh="0.81" NOx_perVeh="4.73" fuel_perVeh="5128.11" electricity_perVeh="0.00"/>
        <edge id="1121186661" sampledSeconds="6.78" CO_abs="36.66" CO2_abs="18662.01" HC_abs="0.24" PMx_abs="0.69" NOx_abs="4.97" fuel_abs="6049.83" electricity_abs="0.00"
            CO_normed="86.47" CO2_normed="44014.18" HC_normed="0.57" PMx_normed="1.62" NOx_normed="11.72" fuel_normed="14268.47" electricity_normed="0.00"
            traveltime="5.85" CO_perVeh="31.65" CO2_perVeh="16110.99" HC_perVeh="0.21" PMx_perVeh="0.59" NOx_perVeh="4.29" fuel_perVeh="5222.84" electricity_perVeh="0.00"/>
        <edge id="1121186669#0" sampledSeconds="5.46" CO_abs="28.33" CO2_abs="7889.24" HC_abs="0.19" PMx_abs="0.53" NOx_abs="2.51" fuel_abs="2557.58" electricity_abs="0.00"
            CO_normed="49.53" CO2_normed="13792.37" HC_normed="0.33" PMx_normed="0.93" NOx_normed="4.40" fuel_normed="4471.29" electricity_normed="0.00"
            traveltime="5.46" CO_perVeh="28.33" CO2_perVeh="7889.24" HC_perVeh="0.19" PMx_perVeh="0.53" NOx_perVeh="2.51" fuel_perVeh="2557.58" electricity_perVeh="0.00"/>
        <edge id="1121186669#1" sampledSeconds="10.82" CO_abs="149.95" CO2_abs="38552.33" HC_abs="1.00" PMx_abs="2.84" NOx_abs="11.86" fuel_abs="12498.03" electricity_abs="0.00"
            CO_normed="83.64" CO2_normed="21503.57" HC_normed="0.56" PMx_normed="1.58" NOx_normed="6.61" fuel_normed="6971.10" electricity_normed="0.00"
            traveltime="11.31" CO_perVeh="156.65" CO2_perVeh="40274.58" HC_perVeh="1.04" PMx_perVeh="2.97" NOx_perVeh="12.39" fuel_perVeh="13056.36" electricity_perVeh="0.00"/>
        <edge id="1121186669#2" sampledSeconds="5.46" CO_abs="8.03" CO2_abs="3565.99" HC_abs="0.05" PMx_abs="0.10" NOx_abs="0.90" fuel_abs="1156.02" electricity_abs="0.00"
            CO_normed="14.82" CO2_normed="6583.37" HC_normed="0.10" PMx_normed="0.19" NOx_normed="1.67" fuel_normed="2134.18" electricity_normed="0.00"
            traveltime="5.46" CO_perVeh="8.03" CO2_perVeh="3565.99" HC_perVeh="0.05" PMx_perVeh="0.10" NOx_perVeh="0.90" fuel_perVeh="1156.02" electricity_perVeh="0.00"/>
        <edge id="1134215441" sampledSeconds="19.04" CO_abs="472.85" CO2_abs="90871.14" HC_abs="3.14" PMx_abs="6.25" NOx_abs="28.47" fuel_abs="29458.88" electricity_abs="0.00"
            CO_normed="278.01" CO2_normed="53427.42" HC_normed="1.84" PMx_normed="3.67" NOx_normed="16.74" fuel_normed="17320.26" electricity_normed="0.00"
            traveltime="9.97" CO_perVeh="247.59" CO2_perVeh="47580.30" HC_perVeh="1.64" PMx_perVeh="3.27" NOx_perVeh="14.90" fuel_perVeh="15424.72" electricity_perVeh="0.00"/>
        <edge id="1137574037" sampledSeconds="10.23" CO_abs="35.71" CO2_abs="14673.62" HC_abs="0.23" PMx_abs="0.44" NOx_abs="3.76" fuel_abs="4756.87" electricity_abs="0.00"
            CO_normed="224.15" CO2_normed="92093.86" HC_normed="1.47" PMx_normed="2.78" NOx_normed="23.60" fuel_normed="29854.84" electricity_normed="0.00"
            traveltime="2.56" CO_perVeh="8.93" CO2_perVeh="3668.41" HC_perVeh="0.06" PMx_perVeh="0.11" NOx_perVeh="0.94" fuel_perVeh="1189.22" electricity_perVeh="0.00"/>
        <edge id="116046165#1" sampledSeconds="46.98" CO_abs="452.81" CO2_abs="107336.99" HC_abs="3.05" PMx_abs="12.28" NOx_abs="35.96" fuel_abs="34797.26" electricity_abs="0.00"
            CO_normed="101.01" CO2_normed="23943.12" HC_normed="0.68" PMx_normed="2.74" NOx_normed="8.02" fuel_normed="7762.05" electricity_normed="0.00"
            traveltime="24.57" CO_perVeh="236.81" CO2_perVeh="56134.66" HC_perVeh="1.59" PMx_perVeh="6.42" NOx_perVeh="18.81" fuel_perVeh="18198.13" electricity_perVeh="0.00"/>
        <edge id="116046168#0" sampledSeconds="39.00" CO_abs="391.36" CO2_abs="90479.18" HC_abs="2.66" PMx_abs="12.25" NOx_abs="30.90" fuel_abs="29332.26" electricity_abs="0.00"
            CO_normed="48.79" CO2_normed="11279.58" HC_normed="0.33" PMx_normed="1.53" NOx_normed="3.85" fuel_normed="3656.70" electricity_normed="0.00"
            traveltime="39.76" CO_perVeh="398.95" CO2_perVeh="92235.81" HC_perVeh="2.71" PMx_perVeh="12.49" NOx_perVeh="31.50" fuel_perVeh="29901.73" electricity_perVeh="0.00"/>
        <edge id="1189610486" sampledSeconds="15.63" CO_abs="187.65" CO2_abs="41797.18" HC_abs="1.24" PMx_abs="2.47" NOx_abs="12.56" fuel_abs="13549.90" electricity_abs="0.00"
            CO_normed="82.69" CO2_normed="18419.62" HC_normed="0.55" PMx_normed="1.09" NOx_normed="5.54" fuel_normed="5971.31" electricity_normed="0.00"
            traveltime="16.18" CO_perVeh="194.21" CO2_perVeh="43258.73" HC_perVeh="1.29" PMx_perVeh="2.55" NOx_perVeh="13.00" fuel_perVeh="14023.70" electricity_perVeh="0.00"/>
        <edge id="1202691839#0" sampledSeconds="24.64" CO_abs="46.07" CO2_abs="28261.36" HC_abs="0.31" PMx_abs="1.53" NOx_abs="11.28" fuel_abs="9162.19" electricity_abs="0.00"
            CO_normed="54.23" CO2_normed="33268.22" HC_normed="0.37" PMx_normed="1.80" NOx_normed="13.28" fuel_normed="10785.39" electricity_normed="0.00"
            traveltime="12.33" CO_perVeh="23.06" CO2_perVeh="14144.55" HC_perVeh="0.16" PMx_perVeh="0.76" NOx_perVeh="5.65" fuel_perVeh="4585.59" electricity_perVeh="0.00"/>
        <edge id="1225342285" sampledSeconds="2.69" CO_abs="17.28" CO2_abs="10877.43" HC_abs="0.11" PMx_abs="0.30" NOx_abs="2.78" fuel_abs="3526.21" electricity_abs="0.00"
            CO_normed="70.47" CO2_normed="44367.51" HC_normed="0.46" PMx_normed="1.23" NOx_normed="11.33" fuel_normed="14382.93" electricity_normed="0.00"
            traveltime="3.91" CO_perVeh="25.14" CO2_perVeh="15826.61" HC_perVeh="0.17" PMx_perVeh="0.44" NOx_perVeh="4.04" fuel_perVeh="5130.62" electricity_perVeh="0.00"/>
        <edge id="1282119227" sampledSeconds="73.45" CO_abs="777.64" CO2_abs="182230.48" HC_abs="5.22" PMx_abs="18.27" NOx_abs="58.95" fuel_abs="59076.46" electricity_abs="0.00"
            CO_normed="173.83" CO2_normed="40735.55" HC_normed="1.17" PMx_normed="4.08" NOx_normed="13.18" fuel_normed="13205.87" electricity_normed="0.00"
            traveltime="25.29" CO_perVeh="267.79" CO2_perVeh="62753.28" HC_perVeh="1.80" PMx_perVeh="6.29" NOx_perVeh="20.30" fuel_perVeh="20343.70" electricity_perVeh="0.00"/>
        <edge id="1296316293#1" sampledSeconds="0.67" CO_abs="26.61" CO2_abs="4551.08" HC_abs="0.18" PMx_abs="0.23" NOx_abs="1.42" fuel_abs="1475.39" electricity_abs="0.00"
            CO_normed="495.84" CO2_normed="84802.77" HC_normed="3.27" PMx_normed="4.22" NOx_normed="26.54" fuel_normed="27491.65" electricity_normed="0.00"
            traveltime="0.34" CO_perVeh="13.31" CO2_perVeh="2275.54" HC_perVeh="0.09" PMx_perVeh="0.11" NOx_perVeh="0.71" fuel_perVeh="737.69" electricity_perVeh="0.00"/>
        <edge id="1306148229#1" sampledSeconds="3.38" CO_abs="122.70" CO2_abs="17298.14" HC_abs="0.81" PMx_abs="1.40" NOx_abs="5.96" fuel_abs="5607.80" electricity_abs="0.00"
            CO_normed="68.34" CO2_normed="9635.06" HC_normed="0.45" PMx_normed="0.78" NOx_normed="3.32" fuel_normed="3123.54" electricity_normed="0.00"
            traveltime="8.65" CO_perVeh="313.68" CO2_perVeh="44222.70" HC_perVeh="2.08" PMx_perVeh="3.57" NOx_perVeh="15.23" fuel_perVeh="14336.35" electricity_perVeh="0.00"/>
        <edge id="139069980#0" sampledSeconds="1.20" CO_abs="45.39" CO2_abs="8120.35" HC_abs="0.30" PMx_abs="0.39" NOx_abs="2.51" fuel_abs="2632.48" electricity_abs="0.00"
            CO_normed="246.68" CO2_normed="44132.32" HC_normed="1.62" PMx_normed="2.11" NOx_normed="13.62" fuel_normed="14306.96" electricity_normed="0.00"
            traveltime="1.20" CO_perVeh="45.39" CO2_perVeh="8120.35" HC_perVeh="0.30" PMx_perVeh="0.39" NOx_perVeh="2.51" fuel_perVeh="2632.48" electricity_perVeh="0.00"/>
        <edge id="139069980#1" sampledSeconds="5.59" CO_abs="22.39" CO2_abs="2989.93" HC_abs="0.15" PMx_abs="0.22" NOx_abs="1.03" fuel_abs="969.29" electricity_abs="0.00"
            CO_normed="31.43" CO2_normed="4197.38" HC_normed="0.21" PMx_normed="0.30" NOx_normed="1.45" fuel_normed="1360.73" electricity_normed="0.00"
            traveltime="5.59" CO_perVeh="22.39" CO2_perVeh="2989.93" HC_perVeh="0.15" PMx_perVeh="0.22" NOx_perVeh="1.03" fuel_perVeh="969.29" electricity_perVeh="0.00"/>
        <edge id="139069980#2" sampledSeconds="7.71" CO_abs="202.90" CO2_abs="31844.51" HC_abs="1.35" PMx_abs="3.08" NOx_abs="10.98" fuel_abs="10323.55" electricity_abs="0.00"
            CO_normed="124.37" CO2_normed="19520.54" HC_normed="0.83" PMx_normed="1.89" NOx_normed="6.73" fuel_normed="6328.29" electricity_normed="0.00"
            traveltime="7.71" CO_perVeh="202.90" CO2_perVeh="31844.51" HC_perVeh="1.35" PMx_perVeh="3.08" NOx_perVeh="10.98" fuel_perVeh="10323.55" electricity_perVeh="0.00"/>
        <edge id="139069980#5" sampledSeconds="24.17" CO_abs="295.67" CO2_abs="65872.17" HC_abs="2.00" PMx_abs="8.61" NOx_abs="23.12" fuel_abs="21355.03" electricity_abs="0.00"
            CO_normed="181.41" CO2_normed="40416.51" HC_normed="1.22" PMx_normed="5.28" NOx_normed="14.19" fuel_normed="13102.59" electricity_normed="0.00"